
Predictions were generated on 18-Nov-2021 at 19:11:59 using OpenFAST, compiled as a 64-bit application using double precision at commit v3.0.0-88-g004de857-dirty
 linked with  NWTC Subroutine Library; ElastoDyn; BeamDyn; InflowWind; AeroDyn

Description from the FAST input file: Generated with AeroElasticSE FAST driver

Time	Wind1VelX	Wind1VelY	Wind1VelZ	Azimuth	BldPitch1	BldPitch2	BldPitch3	GenSpeed	IPDefl1	LSSGagMya	LSSGagMza	LSSTipMys	LSSTipMzs	LSShftFys	LSShftFzs	NacYaw	NcIMUTAxs	NcIMUTAys	NcIMUTAzs	OoPDefl1	PtfmHeave	PtfmPitch	PtfmRoll	PtfmSurge	PtfmSway	PtfmYaw	RootFxb1	RootFxb2	RootFxb3	RootFxc1	RootFxc2	RootFxc3	RootFyb1	RootFyb2	RootFyb3	RootFyc1	RootFyc2	RootFyc3	RootFzb1	RootFzb2	RootFzb3	RootFzc1	RootFzc2	RootFzc3	RootMxb1	RootMxb2	RootMxb3	RootMxc1	RootMxc2	RootMxc3	RootMyb1	RootMyb2	RootMyb3	RootMyc1	RootMyc2	RootMyc3	RootMzb1	RootMzb2	RootMzb3	RootMzc1	RootMzc2	RootMzc3	RotSpeed	RotThrust	RotTorq	Spn1MLxb1	Spn1MLyb1	Spn2MLxb1	Spn2MLyb1	Spn3MLxb1	Spn3MLyb1	Spn4MLxb1	Spn4MLyb1	Spn5MLxb1	Spn5MLyb1	Spn6MLxb1	Spn6MLyb1	Spn7MLxb1	Spn7MLyb1	Spn8MLxb1	Spn8MLyb1	Spn9MLxb1	Spn9MLyb1	TTDspTwst	TipDxb1	TipDxb2	TipDxb3	TipDxc1	TipDxc2	TipDxc3	TipDyb1	TipDyb2	TipDyb3	TipDyc1	TipDyc2	TipDyc3	TipDzb1	TipDzb2	TipDzb3	TipDzc1	TipDzc2	TipDzc3	TwHt1TPxi	TwHt1TPyi	TwrBsFxt	TwrBsFyt	TwrBsFzt	TwrBsMxt	TwrBsMyt	TwrBsMzt	TwstDefl1	YawBrFxp	YawBrFyp	YawBrFzp	YawBrMxp	YawBrMyp	YawBrMzp	YawBrTDxt	YawBrTDyt	B1RootFxr	B1RootFyr	B1RootFzr	B1RootMxr	B1RootMyr	B1RootMzr	B1TipTDxr	B1TipTDyr	B1TipTDzr	B1TipRDxr	B1TipRDyr	B1TipRDzr	B2RootFxr	B2RootFyr	B2RootFzr	B2RootMxr	B2RootMyr	B2RootMzr	B2TipTDxr	B2TipTDyr	B2TipTDzr	B2TipRDxr	B2TipRDyr	B2TipRDzr	B3RootFxr	B3RootFyr	B3RootFzr	B3RootMxr	B3RootMyr	B3RootMzr	B3TipTDxr	B3TipTDyr	B3TipTDzr	B3TipRDxr	B3TipRDyr	B3TipRDzr	RtAeroFxh	RtAeroFyh	RtAeroFzh	RtAeroMxh	RtAeroMyh	RtAeroMzh	RtVAvgxh	RtAeroCp	RtAeroCt	RtArea	RtSpeed	RtTSR
(s)	(m/s)	(m/s)	(m/s)	(deg)	(deg)	(deg)	(deg)	(rpm)	INVALID	(kN-m)	(kN-m)	(kN-m)	(kN-m)	(kN)	(kN)	(deg)	(m/s^2)	(m/s^2)	(m/s^2)	INVALID	(m)	(deg)	(deg)	(m)	(m)	(deg)	INVALID	INVALID	INVALID	INVALID	INVALID	INVALID	INVALID	INVALID	INVALID	INVALID	INVALID	INVALID	INVALID	INVALID	INVALID	INVALID	INVALID	INVALID	INVALID	INVALID	INVALID	INVALID	INVALID	INVALID	INVALID	INVALID	INVALID	INVALID	INVALID	INVALID	INVALID	INVALID	INVALID	INVALID	INVALID	INVALID	(rpm)	(kN)	(kN-m)	INVALID	INVALID	INVALID	INVALID	INVALID	INVALID	INVALID	INVALID	INVALID	INVALID	INVALID	INVALID	INVALID	INVALID	INVALID	INVALID	INVALID	INVALID	(deg)	INVALID	INVALID	INVALID	INVALID	INVALID	INVALID	INVALID	INVALID	INVALID	INVALID	INVALID	INVALID	INVALID	INVALID	INVALID	INVALID	INVALID	INVALID	(m)	(m)	(kN)	(kN)	(kN)	(kN-m)	(kN-m)	(kN-m)	INVALID	(kN)	(kN)	(kN)	(kN-m)	(kN-m)	(kN-m)	(m)	(m)	(N)	(N)	(N)	(N-m)	(N-m)	(N-m)	(m)	(m)	(m)	(-)	(-)	(-)	(N)	(N)	(N)	(N-m)	(N-m)	(N-m)	(m)	(m)	(m)	(-)	(-)	(-)	(N)	(N)	(N)	(N-m)	(N-m)	(N-m)	(m)	(m)	(m)	(-)	(-)	(-)	(N)	(N)	(N)	(N-m)	(N-m)	(N-m)	(m/s)	(-)	(-)	(m^2)	(rpm)	(-)
    0.0000	 9.000000000E+00	-0.000000000E+00	 0.000000000E+00	 0.000000000E+00	 0.000000000E+00	 0.000000000E+00	 0.000000000E+00	 6.389999866E+00	 0.000000000E+00	-3.890505859E+03	-5.698147202E+01	-3.890505859E+03	-5.698147202E+01	-1.544757038E-01	-2.621395996E+03	 0.000000000E+00	 0.000000000E+00	-0.000000000E+00	 0.000000000E+00	 0.000000000E+00	 0.000000000E+00	 0.000000000E+00	 0.000000000E+00	 0.000000000E+00	 0.000000000E+00	 0.000000000E+00	 0.000000000E+00	 0.000000000E+00	 0.000000000E+00	 0.000000000E+00	 0.000000000E+00	 0.000000000E+00	 0.000000000E+00	 0.000000000E+00	 0.000000000E+00	 0.000000000E+00	 0.000000000E+00	 0.000000000E+00	 0.000000000E+00	 0.000000000E+00	 0.000000000E+00	 0.000000000E+00	 0.000000000E+00	 0.000000000E+00	 0.000000000E+00	 0.000000000E+00	 0.000000000E+00	 0.000000000E+00	 0.000000000E+00	 0.000000000E+00	 0.000000000E+00	 0.000000000E+00	 0.000000000E+00	 0.000000000E+00	 0.000000000E+00	 0.000000000E+00	 0.000000000E+00	 0.000000000E+00	 0.000000000E+00	 0.000000000E+00	 0.000000000E+00	 0.000000000E+00	 6.389999866E+00	 2.721656494E+02	 6.400624275E+00	 0.000000000E+00	 0.000000000E+00	 0.000000000E+00	 0.000000000E+00	 0.000000000E+00	 0.000000000E+00	 0.000000000E+00	 0.000000000E+00	 0.000000000E+00	 0.000000000E+00	 0.000000000E+00	 0.000000000E+00	 0.000000000E+00	 0.000000000E+00	 0.000000000E+00	 0.000000000E+00	 0.000000000E+00	 0.000000000E+00	 0.000000000E+00	 0.000000000E+00	 0.000000000E+00	 0.000000000E+00	 0.000000000E+00	 0.000000000E+00	 0.000000000E+00	 0.000000000E+00	 0.000000000E+00	 0.000000000E+00	 0.000000000E+00	 0.000000000E+00	 0.000000000E+00	 0.000000000E+00	 0.000000000E+00	 0.000000000E+00	 0.000000000E+00	 0.000000000E+00	 0.000000000E+00	 0.000000000E+00	-0.000000000E+00	 2.307971764E+01	-1.544757038E-01	-1.777845703E+04	 2.134046364E+01	-6.419800781E+04	-5.549000549E+01	 0.000000000E+00	-3.335785151E+00	-1.544757038E-01	-8.964402344E+03	 1.353470802E+00	-6.531798828E+04	-5.549000549E+01	 0.000000000E+00	-0.000000000E+00	 8.405114844E+04	 1.046241113E+04	 2.600786875E+05	-1.877589375E+05	 3.872152000E+06	-3.869930078E+04	 8.324283361E-01	-3.513283283E-02	 4.735759273E-02	 8.962283027E-04	 1.459898893E-02	-5.973130930E-03	 1.502457500E+05	-5.415415000E+05	 1.207752375E+06	 1.489221400E+07	 5.473815000E+06	-1.029702344E+05	 1.237926126E+00	-1.184225917E+00	 5.484911054E-02	 1.690553129E-02	 2.057963610E-02	 6.861242582E-04	 1.502085781E+05	 5.622695000E+05	 1.207462250E+06	-1.458672300E+07	 5.548477500E+06	-3.724179297E+04	 9.935361147E-01	 1.053193569E+00	 5.449877679E-02	-1.408187859E-02	 1.785740070E-02	-1.665980928E-02	 1.760722000E+06	-2.703837646E+03	 2.838514893E+03	 1.456821800E+07	-7.090635000E+05	 3.711263250E+06	 8.950696945E+00	 4.862063527E-01	 7.860177755E-01	 4.564976953E+04	 6.389999866E+00	 9.011913300E+00
    0.0100	 9.000000000E+00	-0.000000000E+00	 0.000000000E+00	 3.833999932E-01	 0.000000000E+00	 0.000000000E+00	 0.000000000E+00	 6.389999866E+00	 0.000000000E+00	-3.893566406E+03	-3.989465332E+01	-3.893212402E+03	-6.594772339E+01	 5.591344357E+00	-2.621151855E+03	 0.000000000E+00	 0.000000000E+00	-0.000000000E+00	 0.000000000E+00	 0.000000000E+00	 0.000000000E+00	 0.000000000E+00	 0.000000000E+00	 0.000000000E+00	 0.000000000E+00	 0.000000000E+00	 0.000000000E+00	 0.000000000E+00	 0.000000000E+00	 0.000000000E+00	 0.000000000E+00	 0.000000000E+00	 0.000000000E+00	 0.000000000E+00	 0.000000000E+00	 0.000000000E+00	 0.000000000E+00	 0.000000000E+00	 0.000000000E+00	 0.000000000E+00	 0.000000000E+00	 0.000000000E+00	 0.000000000E+00	 0.000000000E+00	 0.000000000E+00	 0.000000000E+00	 0.000000000E+00	 0.000000000E+00	 0.000000000E+00	 0.000000000E+00	 0.000000000E+00	 0.000000000E+00	 0.000000000E+00	 0.000000000E+00	 0.000000000E+00	 0.000000000E+00	 0.000000000E+00	 0.000000000E+00	 0.000000000E+00	 0.000000000E+00	 0.000000000E+00	 0.000000000E+00	 6.389999866E+00	 2.759844360E+02	 7.965960693E+01	 0.000000000E+00	 0.000000000E+00	 0.000000000E+00	 0.000000000E+00	 0.000000000E+00	 0.000000000E+00	 0.000000000E+00	 0.000000000E+00	 0.000000000E+00	 0.000000000E+00	 0.000000000E+00	 0.000000000E+00	 0.000000000E+00	 0.000000000E+00	 0.000000000E+00	 0.000000000E+00	 0.000000000E+00	 0.000000000E+00	 0.000000000E+00	 0.000000000E+00	 0.000000000E+00	 0.000000000E+00	 0.000000000E+00	 0.000000000E+00	 0.000000000E+00	 0.000000000E+00	 0.000000000E+00	 0.000000000E+00	 0.000000000E+00	 0.000000000E+00	 0.000000000E+00	 0.000000000E+00	 0.000000000E+00	 0.000000000E+00	 0.000000000E+00	 0.000000000E+00	 0.000000000E+00	 0.000000000E+00	-0.000000000E+00	 2.690309715E+01	 5.591344357E+00	-1.777861523E+04	-6.852839966E+02	-6.368452734E+04	-1.408157654E+02	 0.000000000E+00	 4.875946939E-01	 5.591344357E+00	-8.964558594E+03	 3.815767670E+01	-6.529919922E+04	-1.408157654E+02	 0.000000000E+00	-0.000000000E+00	 8.576268750E+04	 8.590089844E+03	 2.676110625E+05	-1.587241562E+05	 3.958430500E+06	-1.012634277E+04	 8.483278155E-01	-3.586575016E-02	 4.847235233E-02	 6.321701221E-04	 1.397768687E-02	-2.839542227E-03	 1.526732969E+05	-5.416250625E+05	 1.217766000E+06	 1.491419600E+07	 5.567593000E+06	-7.304816406E+04	 1.255411148E+00	-1.185047865E+00	 5.597482622E-02	 1.661117747E-02	 1.994596235E-02	 4.382569343E-03	 1.514168125E+05	 5.623913125E+05	 1.211642000E+06	-1.456556300E+07	 5.628347500E+06	-9.627941406E+03	 1.008246183E+00	 1.052392364E+00	 5.548317730E-02	-1.431559771E-02	 1.708000898E-02	-1.384939626E-02	 1.638860875E+06	-1.574920898E+03	 4.120475586E+03	 1.158664100E+07	-8.235981875E+05	 3.049247500E+06	 8.439822197E+00	 4.612394869E-01	 8.228389621E-01	 4.565145312E+04	 6.389999866E+00	 9.557594299E+00
    0.0200	 9.000000000E+00	-0.000000000E+00	 0.000000000E+00	 7.667999864E-01	 0.000000000E+00	 0.000000000E+00	 0.000000000E+00	 6.389999866E+00	 0.000000000E+00	-3.887705566E+03	-1.782390022E+01	-3.887118896E+03	-6.985063171E+01	 6.041549683E+00	-2.620487061E+03	 0.000000000E+00	 0.000000000E+00	-0.000000000E+00	 0.000000000E+00	 0.000000000E+00	 0.000000000E+00	 0.000000000E+00	 0.000000000E+00	 0.000000000E+00	 0.000000000E+00	 0.000000000E+00	 0.000000000E+00	 0.000000000E+00	 0.000000000E+00	 0.000000000E+00	 0.000000000E+00	 0.000000000E+00	 0.000000000E+00	 0.000000000E+00	 0.000000000E+00	 0.000000000E+00	 0.000000000E+00	 0.000000000E+00	 0.000000000E+00	 0.000000000E+00	 0.000000000E+00	 0.000000000E+00	 0.000000000E+00	 0.000000000E+00	 0.000000000E+00	 0.000000000E+00	 0.000000000E+00	 0.000000000E+00	 0.000000000E+00	 0.000000000E+00	 0.000000000E+00	 0.000000000E+00	 0.000000000E+00	 0.000000000E+00	 0.000000000E+00	 0.000000000E+00	 0.000000000E+00	 0.000000000E+00	 0.000000000E+00	 0.000000000E+00	 0.000000000E+00	 0.000000000E+00	 6.389999866E+00	 2.811635132E+02	 2.934650574E+02	 0.000000000E+00	 0.000000000E+00	 0.000000000E+00	 0.000000000E+00	 0.000000000E+00	 0.000000000E+00	 0.000000000E+00	 0.000000000E+00	 0.000000000E+00	 0.000000000E+00	 0.000000000E+00	 0.000000000E+00	 0.000000000E+00	 0.000000000E+00	 0.000000000E+00	 0.000000000E+00	 0.000000000E+00	 0.000000000E+00	 0.000000000E+00	 0.000000000E+00	 0.000000000E+00	 0.000000000E+00	 0.000000000E+00	 0.000000000E+00	 0.000000000E+00	 0.000000000E+00	 0.000000000E+00	 0.000000000E+00	 0.000000000E+00	 0.000000000E+00	 0.000000000E+00	 0.000000000E+00	 0.000000000E+00	 0.000000000E+00	 0.000000000E+00	 0.000000000E+00	 0.000000000E+00	 0.000000000E+00	-0.000000000E+00	 3.212326813E+01	 6.041549683E+00	-1.777849414E+04	-5.340595093E+02	-6.296968359E+04	-1.724329376E+02	 0.000000000E+00	 5.707765579E+00	 6.041549683E+00	-8.964439453E+03	 2.476324310E+02	-6.525977344E+04	-1.724329376E+02	 0.000000000E+00	-0.000000000E+00	 8.876133594E+04	 3.002395508E+03	 2.822187500E+05	-8.393789062E+04	 4.139254250E+06	 1.008507129E+04	 8.963049054E-01	-3.745184839E-02	 5.182677880E-02	 2.864740418E-05	 1.712450758E-02	 4.645641893E-03	 1.559668750E+05	-5.435883750E+05	 1.236889500E+06	 1.496558200E+07	 5.755179000E+06	-5.363527344E+04	 1.307750225E+00	-1.186716557E+00	 5.933502689E-02	 1.592973061E-02	 2.343812585E-02	 1.321939658E-02	 1.533080938E+05	 5.601937500E+05	 1.220695375E+06	-1.451181300E+07	 5.798462500E+06	 1.218843555E+04	 1.053709030E+00	 1.050529242E+00	 5.853791907E-02	-1.485685725E-02	 2.002394944E-02	-6.859784946E-03	 1.540859375E+06	-4.403082886E+02	 4.534392578E+03	 9.450833000E+06	-9.314944375E+05	 2.487249500E+06	 8.020353317E+00	 4.383377433E-01	 8.565759063E-01	 4.565664844E+04	 6.389999866E+00	 1.005803299E+01
